/*--------------------------------*- C++ -*----------------------------------*\
| =========                 |                                                 |
| \\      /  F ield         | OpenFOAM: The Open Source CFD Toolbox           |
|  \\    /   O peration     | Version:  5                                     |
|   \\  /    A nd           | Web:      www.OpenFOAM.org                      |
|    \\/     M anipulation  |                                                 |
\*---------------------------------------------------------------------------*/
FoamFile
{
    version     2.0;
    format      ascii;
    class       volScalarField;
    object      p;
}
// * * * * * * * * * * * * * * * * * * * * * * * * * * * * * * * * * * * * * //

dimensions      [0 2 -2 0 0 0 0];

internalField   uniform 0;

boundaryField
{
    i-00
    {
        type            zeroGradient;
    }

    o-00
    {
        type            zeroGradient;
    }

    w-00
    {
        type            zeroGradient;
    }

    s-00
    {
    	type		symmetry;
    }

    w-01
    {
   	type		zeroGradient;
    }

    p-00
    {
	type 		empty;
    }
}

// ************************************************************************* //