# Residuals  
# Time       	p            	Ux           	Uy           
1            	1.000000e+00	1.000000e+00	1.000000e+00
2            	3.457400e-01	2.995250e-01	3.229030e-01
3            	4.811130e-01	3.379750e-02	4.988790e-02
4            	3.528640e-01	2.637050e-02	2.353010e-02
5            	2.943000e-01	1.375250e-02	2.199670e-02
6            	2.264090e-01	1.036030e-02	2.025090e-02
7            	1.767200e-01	8.475400e-03	1.896590e-02
8            	1.310000e-01	7.830030e-03	1.813650e-02
9            	1.081560e-01	7.914180e-03	1.752920e-02
10           	9.314490e-02	7.524090e-03	1.708200e-02
11           	7.631580e-02	7.192420e-03	1.660180e-02
12           	7.469480e-02	6.995940e-03	1.615020e-02
13           	7.270060e-02	6.855410e-03	1.574410e-02
14           	7.190340e-02	6.745310e-03	1.538700e-02
15           	7.434580e-02	6.608870e-03	1.509840e-02
16           	6.994490e-02	6.481470e-03	1.480980e-02
17           	6.990590e-02	6.331520e-03	1.454970e-02
18           	6.963540e-02	6.157880e-03	1.429570e-02
19           	6.769240e-02	5.938110e-03	1.403230e-02
20           	6.947680e-02	5.801230e-03	1.382660e-02
21           	6.383720e-02	5.655740e-03	1.363070e-02
22           	6.263320e-02	5.508770e-03	1.339930e-02
23           	6.486880e-02	5.385370e-03	1.320940e-02
24           	6.162280e-02	5.277730e-03	1.304820e-02
25           	6.003620e-02	5.195350e-03	1.286530e-02
26           	6.185840e-02	5.077990e-03	1.268460e-02
27           	5.935500e-02	4.988140e-03	1.254200e-02
28           	5.865420e-02	4.969570e-03	1.239970e-02
29           	6.050140e-02	4.857810e-03	1.221540e-02
30           	5.825900e-02	4.790140e-03	1.209130e-02
31           	5.765000e-02	4.744570e-03	1.194670e-02
32           	5.718800e-02	4.694260e-03	1.178340e-02
33           	5.920130e-02	4.648060e-03	1.163840e-02
34           	5.794010e-02	4.594130e-03	1.148600e-02
35           	5.555470e-02	4.537270e-03	1.131990e-02
36           	5.968390e-02	4.468560e-03	1.115240e-02
37           	5.805700e-02	4.451980e-03	1.101540e-02
38           	5.573170e-02	4.381750e-03	1.082480e-02
39           	5.537340e-02	4.377330e-03	1.068310e-02
40           	5.796480e-02	4.328580e-03	1.048150e-02
41           	5.445560e-02	4.348490e-03	1.035850e-02
42           	5.676900e-02	4.312070e-03	1.016240e-02
43           	5.527340e-02	4.354450e-03	1.003670e-02
44           	5.674470e-02	4.318440e-03	9.861120e-03
45           	5.423880e-02	4.371660e-03	9.747180e-03
46           	5.736510e-02	4.341190e-03	9.588750e-03
47           	5.504880e-02	4.400760e-03	9.481330e-03
48           	5.550710e-02	4.379950e-03	9.346700e-03
49           	5.534550e-02	4.449240e-03	9.253730e-03
50           	5.509450e-02	4.429020e-03	9.134900e-03
51           	5.038080e-02	4.506180e-03	9.067170e-03
52           	5.468530e-02	4.485120e-03	8.948990e-03
53           	5.207180e-02	4.566970e-03	8.890290e-03
54           	5.323850e-02	4.554090e-03	8.793600e-03
55           	5.319030e-02	4.618310e-03	8.720510e-03
56           	5.403210e-02	4.606530e-03	8.657230e-03
57           	5.473770e-02	4.672230e-03	8.583220e-03
58           	5.767650e-02	4.651400e-03	8.516250e-03
59           	5.356150e-02	4.705220e-03	8.467850e-03
60           	6.092230e-02	4.683890e-03	8.422660e-03
61           	5.532320e-02	4.700040e-03	8.395590e-03
62           	5.340200e-02	4.733090e-03	8.362540e-03
63           	5.561460e-02	4.702570e-03	8.343990e-03
64           	5.415790e-02	4.703640e-03	8.340100e-03
65           	5.399640e-02	4.735330e-03	8.338560e-03
66           	5.340900e-02	4.711740e-03	8.343480e-03
67           	5.449060e-02	4.720840e-03	8.364600e-03
68           	5.210490e-02	4.743140e-03	8.388730e-03
69           	5.379030e-02	4.761090e-03	8.411580e-03
70           	5.505270e-02	4.796410e-03	8.441650e-03
71           	5.627720e-02	4.825770e-03	8.468610e-03
72           	5.872220e-02	4.862920e-03	8.497230e-03
73           	6.025320e-02	4.894510e-03	8.527930e-03
74           	6.376170e-02	4.927620e-03	8.561240e-03
75           	6.404200e-02	4.964540e-03	8.594710e-03
76           	6.855310e-02	4.994150e-03	8.630070e-03
77           	6.901870e-02	5.029460e-03	8.664210e-03
78           	7.233990e-02	5.052200e-03	8.707060e-03
79           	7.329440e-02	5.079760e-03	8.748880e-03
80           	7.471000e-02	5.098000e-03	8.794700e-03
81           	7.873260e-02	5.114040e-03	8.846390e-03
82           	7.958640e-02	5.132100e-03	8.889310e-03
83           	8.043900e-02	5.139190e-03	8.946920e-03
84           	8.526970e-02	5.155090e-03	8.991410e-03
85           	8.304260e-02	5.158040e-03	9.038770e-03
86           	8.861140e-02	5.168450e-03	9.092060e-03
87           	8.812190e-02	5.167300e-03	9.131700e-03
88           	8.527210e-02	5.168240e-03	9.197380e-03
89           	8.662260e-02	5.166580e-03	9.255420e-03
90           	8.493670e-02	5.159560e-03	9.326970e-03
91           	8.815960e-02	5.155510e-03	9.387830e-03
92           	8.629960e-02	5.140820e-03	9.469370e-03
93           	8.719710e-02	5.126730e-03	9.550640e-03
94           	8.511980e-02	5.104780e-03	9.649740e-03
95           	8.161060e-02	5.085910e-03	9.746110e-03
96           	8.173610e-02	5.057530e-03	9.874630e-03
97           	7.839550e-02	5.033360e-03	9.984010e-03
98           	7.965060e-02	5.002110e-03	1.012280e-02
99           	7.676240e-02	4.981620e-03	1.023790e-02
100          	7.929890e-02	4.953250e-03	1.038430e-02
101          	7.544300e-02	4.938890e-03	1.051080e-02
102          	7.797210e-02	4.920630e-03	1.066170e-02
103          	7.792970e-02	4.912730e-03	1.078900e-02
104          	7.781320e-02	4.906370e-03	1.094020e-02
105          	7.810320e-02	4.907480e-03	1.107720e-02
106          	7.849230e-02	4.914900e-03	1.121840e-02
107          	7.894040e-02	4.927130e-03	1.135980e-02
108          	7.961800e-02	4.937520e-03	1.150610e-02
109          	7.935280e-02	4.957640e-03	1.164070e-02
110          	8.104910e-02	4.978710e-03	1.179040e-02
111          	7.971670e-02	5.000310e-03	1.192390e-02
112          	8.118910e-02	5.029390e-03	1.206720e-02
113          	8.122510e-02	5.051000e-03	1.219380e-02
114          	8.090950e-02	5.086330e-03	1.231980e-02
115          	8.078860e-02	5.115000e-03	1.244160e-02
116          	8.230570e-02	5.151710e-03	1.255150e-02
117          	8.435770e-02	5.183390e-03	1.265030e-02
118          	8.353720e-02	5.210830e-03	1.275140e-02
119          	8.254070e-02	5.241140e-03	1.282990e-02
120          	8.438130e-02	5.267860e-03	1.291090e-02
121          	8.787390e-02	5.290120e-03	1.296360e-02
122          	8.755490e-02	5.309350e-03	1.301320e-02
123          	8.518090e-02	5.324660e-03	1.305720e-02
124          	8.535720e-02	5.328850e-03	1.307800e-02
125          	8.603870e-02	5.331010e-03	1.308230e-02
126          	8.825060e-02	5.329300e-03	1.308110e-02
127          	8.707280e-02	5.312880e-03	1.306760e-02
128          	8.340970e-02	5.300740e-03	1.304820e-02
129          	8.390490e-02	5.272060e-03	1.300930e-02
130          	8.405990e-02	5.243680e-03	1.297520e-02
131          	8.435240e-02	5.207000e-03	1.295360e-02
132          	8.411310e-02	5.162050e-03	1.291980e-02
133          	8.020180e-02	5.123180e-03	1.288880e-02
134          	7.782100e-02	5.087980e-03	1.288070e-02
135          	7.819210e-02	5.057620e-03	1.286950e-02
136          	7.884340e-02	5.023630e-03	1.286960e-02
137          	7.885090e-02	4.998830e-03	1.286660e-02
138          	7.755780e-02	4.985390e-03	1.286100e-02
139          	7.297480e-02	4.964730e-03	1.286600e-02
140          	7.598450e-02	4.948910e-03	1.287780e-02
141          	7.349360e-02	4.930740e-03	1.287410e-02
142          	7.158720e-02	4.926720e-03	1.289930e-02
143          	7.254800e-02	4.923790e-03	1.290330e-02
144          	6.983570e-02	4.928350e-03	1.291660e-02
145          	7.243790e-02	4.941750e-03	1.293270e-02
146          	7.254370e-02	4.954640e-03	1.292370e-02
147          	7.221500e-02	4.973430e-03	1.291300e-02
148          	7.324560e-02	4.997970e-03	1.288710e-02
149          	7.232100e-02	5.023780e-03	1.285050e-02
150          	7.705420e-02	5.043770e-03	1.281730e-02
151          	7.577750e-02	5.061720e-03	1.276440e-02
152          	7.681880e-02	5.074310e-03	1.270550e-02
153          	7.697750e-02	5.094310e-03	1.263410e-02
154          	7.774050e-02	5.105090e-03	1.254390e-02
155          	8.026270e-02	5.122450e-03	1.245190e-02
156          	7.940820e-02	5.130870e-03	1.235560e-02
157          	8.079390e-02	5.156000e-03	1.228010e-02
158          	7.739210e-02	5.163430e-03	1.218830e-02
159          	7.820670e-02	5.177080e-03	1.209000e-02
160          	7.691300e-02	5.179440e-03	1.199850e-02
161          	7.858080e-02	5.187040e-03	1.190240e-02
162          	7.794080e-02	5.185090e-03	1.182850e-02
163          	7.634110e-02	5.194840e-03	1.175050e-02
164          	7.494380e-02	5.188420e-03	1.168510e-02
165          	7.498510e-02	5.196710e-03	1.160740e-02
166          	7.413330e-02	5.192690e-03	1.155540e-02
167          	7.464770e-02	5.206180e-03	1.149730e-02
168          	7.394690e-02	5.204770e-03	1.146140e-02
169          	7.338860e-02	5.214980e-03	1.140660e-02
170          	7.174660e-02	5.217450e-03	1.137580e-02
171          	7.269250e-02	5.221080e-03	1.134090e-02
172          	7.151680e-02	5.229560e-03	1.130680e-02
173          	7.302510e-02	5.222450e-03	1.126980e-02
174          	7.214610e-02	5.226000e-03	1.123410e-02
175          	7.178560e-02	5.212440e-03	1.120210e-02
176          	7.080720e-02	5.207850e-03	1.117470e-02
177          	7.003730e-02	5.191900e-03	1.115120e-02
178          	7.070120e-02	5.179770e-03	1.112640e-02
179          	6.947940e-02	5.163810e-03	1.110340e-02
180          	7.030540e-02	5.149800e-03	1.107860e-02
181          	6.992590e-02	5.131090e-03	1.105870e-02
182          	7.162600e-02	5.123380e-03	1.103590e-02
183          	7.183060e-02	5.105330e-03	1.099850e-02
184          	7.295320e-02	5.107140e-03	1.097030e-02
185          	7.332030e-02	5.095900e-03	1.092530e-02
186          	7.209180e-02	5.106820e-03	1.088530e-02
187          	7.460650e-02	5.100120e-03	1.083360e-02
188          	7.276920e-02	5.110760e-03	1.079560e-02
189          	7.620100e-02	5.098770e-03	1.073730e-02
190          	7.434100e-02	5.102990e-03	1.068300e-02
191          	7.638850e-02	5.088680e-03	1.062690e-02
192          	7.571760e-02	5.087040e-03	1.056470e-02
193          	7.464540e-02	5.071440e-03	1.051360e-02
194          	7.635300e-02	5.065930e-03	1.044660e-02
195          	7.341270e-02	5.055120e-03	1.038880e-02
196          	7.542190e-02	5.038500e-03	1.032100e-02
197          	7.271370e-02	5.013680e-03	1.024590e-02
198          	7.330090e-02	4.991680e-03	1.017670e-02
199          	7.290870e-02	4.958480e-03	1.010610e-02
200          	7.053750e-02	4.928050e-03	1.002880e-02
201          	7.140760e-02	4.893280e-03	9.970370e-03
202          	6.783840e-02	4.841450e-03	9.911630e-03
203          	6.835930e-02	4.802900e-03	9.877030e-03
204          	6.522360e-02	4.753290e-03	9.846640e-03
205          	6.550180e-02	4.710980e-03	9.832760e-03
206          	6.359080e-02	4.674570e-03	9.831250e-03
207          	6.268250e-02	4.650770e-03	9.821510e-03
208          	6.175000e-02	4.622950e-03	9.816130e-03
209          	6.028330e-02	4.606690e-03	9.774760e-03
210          	6.052130e-02	4.586370e-03	9.708060e-03
211          	5.896870e-02	4.575690e-03	9.615750e-03
212          	5.970720e-02	4.552890e-03	9.510800e-03
213          	5.807750e-02	4.536600e-03	9.380660e-03
214          	5.904560e-02	4.509570e-03	9.247540e-03
215          	5.754260e-02	4.483890e-03	9.096890e-03
216          	5.503180e-02	4.474860e-03	8.976690e-03
217          	5.760960e-02	4.417960e-03	8.811710e-03
218          	5.504830e-02	4.411800e-03	8.698570e-03
219          	5.721240e-02	4.353640e-03	8.553160e-03
220          	5.457080e-02	4.337650e-03	8.477840e-03
221          	5.667550e-02	4.268550e-03	8.366560e-03
222          	5.399070e-02	4.238710e-03	8.338960e-03
223          	5.671880e-02	4.162710e-03	8.256710e-03
224          	5.726450e-02	4.108430e-03	8.236270e-03
225          	5.189730e-02	4.070080e-03	8.294000e-03
226          	5.664450e-02	3.980420e-03	8.268380e-03
227          	5.549000e-02	3.925570e-03	8.294520e-03
228          	5.188210e-02	3.878930e-03	8.408830e-03
229          	5.508840e-02	3.795030e-03	8.417320e-03
230          	5.454280e-02	3.736680e-03	8.466210e-03
231          	5.324740e-02	3.677460e-03	8.510370e-03
232          	5.058400e-02	3.648860e-03	8.580950e-03
233          	5.343470e-02	3.565550e-03	8.549880e-03
234          	5.408240e-02	3.512770e-03	8.513430e-03
235          	4.986300e-02	3.503570e-03	8.504310e-03
236          	5.540630e-02	3.431910e-03	8.409690e-03
237          	5.079160e-02	3.437350e-03	8.353900e-03
238          	5.513650e-02	3.388210e-03	8.217830e-03
239          	5.096010e-02	3.414350e-03	8.120690e-03
240          	5.431350e-02	3.391800e-03	7.973760e-03
241          	5.159260e-02	3.444890e-03	7.869880e-03
242          	5.483850e-02	3.439660e-03	7.711430e-03
243          	5.194850e-02	3.506010e-03	7.609260e-03
244          	5.427240e-02	3.507740e-03	7.454120e-03
245          	4.995800e-02	3.560960e-03	7.377980e-03
246          	5.312250e-02	3.543800e-03	7.244220e-03
247          	4.804970e-02	3.568850e-03	7.197750e-03
248          	5.054170e-02	3.530530e-03	7.090330e-03
249          	4.829040e-02	3.513980e-03	7.019300e-03
250          	4.581210e-02	3.511150e-03	7.054350e-03
251          	4.765720e-02	3.457100e-03	6.976850e-03
252          	4.609490e-02	3.426060e-03	6.936680e-03
253          	4.375560e-02	3.424680e-03	7.017050e-03
254          	4.496080e-02	3.375350e-03	6.974120e-03
255          	4.390610e-02	3.344600e-03	6.978750e-03
256          	4.141600e-02	3.342960e-03	7.071000e-03
257          	4.357090e-02	3.307830e-03	7.029080e-03
258          	4.183210e-02	3.296360e-03	7.078590e-03
259          	4.546250e-02	3.283150e-03	7.046470e-03
260          	4.357350e-02	3.297600e-03	7.113120e-03
261          	4.605130e-02	3.289310e-03	7.062580e-03
262          	4.373870e-02	3.284240e-03	7.071680e-03
263          	4.686840e-02	3.269160e-03	6.992750e-03
264          	4.678880e-02	3.255370e-03	6.928110e-03
265          	4.559420e-02	3.250430e-03	6.923310e-03
266          	4.655620e-02	3.238510e-03	6.848780e-03
267          	4.535610e-02	3.235770e-03	6.820800e-03
268          	4.361660e-02	3.262960e-03	6.889900e-03
269          	4.517040e-02	3.246120e-03	6.851830e-03
270          	4.262850e-02	3.270430e-03	6.924990e-03
271          	4.499820e-02	3.253540e-03	6.914330e-03
272          	4.377370e-02	3.282540e-03	7.035420e-03
273          	4.634510e-02	3.264490e-03	7.051760e-03
274          	4.421830e-02	3.297540e-03	7.179470e-03
275          	4.626850e-02	3.284280e-03	7.180180e-03
276          	4.519030e-02	3.328450e-03	7.297160e-03
277          	4.908450e-02	3.321890e-03	7.294270e-03
278          	4.839180e-02	3.360550e-03	7.361170e-03
279          	5.115980e-02	3.353870e-03	7.316110e-03
280          	4.787440e-02	3.372790e-03	7.281380e-03
281          	4.734750e-02	3.375620e-03	7.190700e-03
282          	4.736570e-02	3.374050e-03	7.091650e-03
283          	4.822100e-02	3.373250e-03	6.988290e-03
284          	4.806420e-02	3.369470e-03	6.899550e-03
285          	4.549300e-02	3.365240e-03	6.822830e-03
286          	4.260990e-02	3.358050e-03	6.766880e-03
287          	4.034680e-02	3.351170e-03	6.745190e-03
288          	3.877130e-02	3.346830e-03	6.753880e-03
289          	3.772400e-02	3.336840e-03	6.764710e-03
290          	3.668210e-02	3.317540e-03	6.788720e-03
291          	3.649430e-02	3.297350e-03	6.818390e-03
292          	3.617620e-02	3.279250e-03	6.856260e-03
293          	3.656130e-02	3.271680e-03	6.906330e-03
294          	3.697540e-02	3.270680e-03	6.970460e-03
295          	3.748500e-02	3.238780e-03	6.986630e-03
296          	3.553640e-02	3.240090e-03	7.107850e-03
297          	3.697800e-02	3.210790e-03	7.114060e-03
298          	3.391630e-02	3.196570e-03	7.214660e-03
299          	3.450200e-02	3.166180e-03	7.205690e-03
300          	3.254840e-02	3.144920e-03	7.279110e-03
301          	3.228700e-02	3.113760e-03	7.274820e-03
302          	2.994110e-02	3.101360e-03	7.348610e-03
303          	2.997740e-02	3.080260e-03	7.357770e-03
304          	2.789000e-02	3.096380e-03	7.474250e-03
305          	2.710480e-02	3.109630e-03	7.558120e-03
306          	2.716430e-02	3.113980e-03	7.636860e-03
307          	2.750320e-02	3.126220e-03	7.721270e-03
308          	2.820160e-02	3.142390e-03	7.818510e-03
309          	2.895140e-02	3.162010e-03	7.923630e-03
310          	2.981820e-02	3.182740e-03	8.032540e-03
311          	3.068180e-02	3.207230e-03	8.148800e-03
312          	3.155930e-02	3.234300e-03	8.262040e-03
313          	3.292400e-02	3.266190e-03	8.372950e-03
314          	3.324890e-02	3.305450e-03	8.489710e-03
315          	3.263110e-02	3.347850e-03	8.608640e-03
316          	3.291860e-02	3.391690e-03	8.724190e-03
317          	3.221340e-02	3.440940e-03	8.846830e-03
318          	3.140960e-02	3.493740e-03	8.984940e-03
319          	3.147480e-02	3.557060e-03	9.121050e-03
320          	3.154880e-02	3.626740e-03	9.258970e-03
321          	3.158320e-02	3.700140e-03	9.401340e-03
322          	3.242840e-02	3.779400e-03	9.545490e-03
323          	3.369160e-02	3.862500e-03	9.691200e-03
324          	3.439040e-02	3.950270e-03	9.830940e-03
325          	3.522940e-02	4.044550e-03	9.965420e-03
326          	3.654310e-02	4.135810e-03	1.008680e-02
327          	3.766190e-02	4.228380e-03	1.020590e-02
328          	3.856240e-02	4.318680e-03	1.032130e-02
329          	4.113650e-02	4.407110e-03	1.042840e-02
330          	4.123880e-02	4.497680e-03	1.053300e-02
331          	4.404390e-02	4.592340e-03	1.063480e-02
332          	4.484790e-02	4.690180e-03	1.072980e-02
333          	4.513170e-02	4.789360e-03	1.082430e-02
334          	4.406840e-02	4.898970e-03	1.093380e-02
335          	4.548340e-02	5.015720e-03	1.106190e-02
336          	4.461610e-02	5.136320e-03	1.119160e-02
337          	4.618830e-02	5.281470e-03	1.134250e-02
338          	4.997620e-02	5.447750e-03	1.149620e-02
339          	5.169040e-02	5.575730e-03	1.160450e-02
340          	5.452790e-02	5.694570e-03	1.170930e-02
341          	5.494990e-02	5.781670e-03	1.181580e-02
342          	5.514120e-02	5.757000e-03	1.185180e-02
343          	5.623200e-02	5.828440e-03	1.195310e-02
344          	5.794720e-02	5.957540e-03	1.208940e-02
345          	5.829630e-02	6.104570e-03	1.224340e-02
346          	6.003460e-02	6.243740e-03	1.239750e-02
347          	5.909350e-02	6.380440e-03	1.256610e-02
348          	6.039880e-02	6.517150e-03	1.274390e-02
349          	6.299450e-02	6.679920e-03	1.290450e-02
350          	6.300350e-02	6.858630e-03	1.306290e-02
